Program Version,EnergyPlus, Version 23.2.0-7636e6b3e9, YMD=2024.10.25 17:33
1,5,Environment Title[],Latitude[deg],Longitude[deg],Time Zone[],Elevation[m]
2,8,Day of Simulation[],Month[],Day of Month[],DST Indicator[1=yes 0=no],Hour[],StartMinute[],EndMinute[],DayType
3,5,Cumulative Day of Simulation[],Month[],Day of Month[],DST Indicator[1=yes 0=no],DayType  ! When Daily Report Variables Requested
4,2,Cumulative Days of Simulation[],Month[]  ! When Monthly Report Variables Requested
5,1,Cumulative Days of Simulation[] ! When Run Period Report Variables Requested
6,1,Calendar Year of Simulation[] ! When Annual Report Variables Requested
680,1,THERMAL ZONE 1 IDEAL LOADS AIR SYSTEM,Zone Ideal Loads Supply Air Sensible Heating Energy [J] !Hourly
681,1,THERMAL ZONE 1 IDEAL LOADS AIR SYSTEM,Zone Ideal Loads Supply Air Latent Heating Energy [J] !Hourly
682,1,THERMAL ZONE 1 IDEAL LOADS AIR SYSTEM,Zone Ideal Loads Supply Air Total Heating Energy [J] !Hourly
731,1,THERMAL ZONE 1 IDEAL LOADS AIR SYSTEM,Zone Ideal Loads Supply Air Sensible Cooling Energy [J] !Hourly
732,1,THERMAL ZONE 1 IDEAL LOADS AIR SYSTEM,Zone Ideal Loads Supply Air Latent Cooling Energy [J] !Hourly
733,1,THERMAL ZONE 1 IDEAL LOADS AIR SYSTEM,Zone Ideal Loads Supply Air Total Cooling Energy [J] !Hourly
782,1,THERMAL ZONE 1 IDEAL LOADS AIR SYSTEM,Zone Ideal Loads Supply Air Sensible Heating Rate [W] !Hourly
783,1,THERMAL ZONE 1 IDEAL LOADS AIR SYSTEM,Zone Ideal Loads Supply Air Latent Heating Rate [W] !Hourly
784,1,THERMAL ZONE 1 IDEAL LOADS AIR SYSTEM,Zone Ideal Loads Supply Air Total Heating Rate [W] !Hourly
785,1,THERMAL ZONE 1 IDEAL LOADS AIR SYSTEM,Zone Ideal Loads Supply Air Sensible Cooling Rate [W] !Hourly
786,1,THERMAL ZONE 1 IDEAL LOADS AIR SYSTEM,Zone Ideal Loads Supply Air Latent Cooling Rate [W] !Hourly
787,1,THERMAL ZONE 1 IDEAL LOADS AIR SYSTEM,Zone Ideal Loads Supply Air Total Cooling Rate [W] !Hourly
788,1,THERMAL ZONE 2 IDEAL LOADS AIR SYSTEM,Zone Ideal Loads Supply Air Sensible Heating Energy [J] !Hourly
789,1,THERMAL ZONE 2 IDEAL LOADS AIR SYSTEM,Zone Ideal Loads Supply Air Latent Heating Energy [J] !Hourly
790,1,THERMAL ZONE 2 IDEAL LOADS AIR SYSTEM,Zone Ideal Loads Supply Air Total Heating Energy [J] !Hourly
791,1,THERMAL ZONE 2 IDEAL LOADS AIR SYSTEM,Zone Ideal Loads Supply Air Sensible Cooling Energy [J] !Hourly
792,1,THERMAL ZONE 2 IDEAL LOADS AIR SYSTEM,Zone Ideal Loads Supply Air Latent Cooling Energy [J] !Hourly
793,1,THERMAL ZONE 2 IDEAL LOADS AIR SYSTEM,Zone Ideal Loads Supply Air Total Cooling Energy [J] !Hourly
794,1,THERMAL ZONE 2 IDEAL LOADS AIR SYSTEM,Zone Ideal Loads Supply Air Sensible Heating Rate [W] !Hourly
795,1,THERMAL ZONE 2 IDEAL LOADS AIR SYSTEM,Zone Ideal Loads Supply Air Latent Heating Rate [W] !Hourly
796,1,THERMAL ZONE 2 IDEAL LOADS AIR SYSTEM,Zone Ideal Loads Supply Air Total Heating Rate [W] !Hourly
797,1,THERMAL ZONE 2 IDEAL LOADS AIR SYSTEM,Zone Ideal Loads Supply Air Sensible Cooling Rate [W] !Hourly
798,1,THERMAL ZONE 2 IDEAL LOADS AIR SYSTEM,Zone Ideal Loads Supply Air Latent Cooling Rate [W] !Hourly
799,1,THERMAL ZONE 2 IDEAL LOADS AIR SYSTEM,Zone Ideal Loads Supply Air Total Cooling Rate [W] !Hourly
8,1,Electricity:Facility [J] !TimeStep
734,1,DistrictCooling:Facility [J] !TimeStep
End of Data Dictionary
1,BEIJING ANN CLG .4% CONDNS DB=>MWB,  39.80, 116.47,   8.00,  31.30
2,1, 7,21, 0, 1, 0.00,60.00,SummerDesignDay
8,9881269.76253951
734,3078142.417323874
2,1, 7,21, 0, 1, 0.00,60.00,SummerDesignDay
680,0.0
681,0.0
682,0.0
731,1712196.0012965905
732,428579.1274364229
733,2140775.1287330138
782,0.0
783,0.0
784,0.0
785,475.61000036016407
786,119.0497576212286
787,594.6597579813927
788,0.0
789,0.0
790,0.0
791,737918.009947674
792,199449.2786431859
793,937367.28859086
794,0.0
795,0.0
796,0.0
797,204.977224985465
798,55.40257740088498
799,260.37980238635
2,1, 7,21, 0, 2, 0.00,60.00,SummerDesignDay
8,9881269.76253951
734,3772154.838848302
2,1, 7,21, 0, 2, 0.00,60.00,SummerDesignDay
680,0.0
681,0.0
682,0.0
731,1965864.7896091347
732,507167.0775222652
733,2473031.8671314
782,0.0
783,0.0
784,0.0
785,546.0735526692041
786,140.87974375618478
787,686.9532964253889
788,0.0
789,0.0
790,0.0
791,1016214.2801922925
792,282908.69152460963
793,1299122.9717169022
794,0.0
795,0.0
796,0.0
797,282.28174449785905
798,78.5857476457249
799,360.86749214358395
2,1, 7,21, 0, 3, 0.00,60.00,SummerDesignDay
8,9881269.76253951
734,3716817.940861374
2,1, 7,21, 0, 3, 0.00,60.00,SummerDesignDay
680,0.0
681,0.0
682,0.0
731,1918635.1236340138
732,499564.0608644399
733,2418199.184498454
782,0.0
783,0.0
784,0.0
785,532.9542010094483
786,138.76779468456664
787,671.7219956940149
788,0.0
789,0.0
790,0.0
791,1014678.9923888289
792,283939.76397409145
793,1298618.7563629204
794,0.0
795,0.0
796,0.0
797,281.8552756635636
798,78.87215665946985
799,360.72743232303344
2,1, 7,21, 0, 4, 0.00,60.00,SummerDesignDay
8,9881269.76253951
734,3395443.3878090894
2,1, 7,21, 0, 4, 0.00,60.00,SummerDesignDay
680,0.0
681,0.0
682,0.0
731,1737206.319158197
732,448710.06758350215
733,2185916.386741699
782,0.0
783,0.0
784,0.0
785,482.5573108772769
786,124.6416854398617
787,607.1989963171386
788,0.0
789,0.0
790,0.0
791,949457.0436638809
792,260069.95740350944
793,1209527.0010673904
794,0.0
795,0.0
796,0.0
797,263.73806768441136
798,72.24165483430818
799,335.97972251871954
2,1, 7,21, 0, 5, 0.00,60.00,SummerDesignDay
8,9881269.76253951
734,3023089.648268845
2,1, 7,21, 0, 5, 0.00,60.00,SummerDesignDay
680,0.0
681,0.0
682,0.0
731,1537633.921890163
732,398225.1869472004
733,1935859.1088373633
782,0.0
783,0.0
784,0.0
785,427.1205338583786
786,110.61810748533344
787,537.7386413437121
788,0.0
789,0.0
790,0.0
791,855566.8899183744
792,231663.64951310714
793,1087230.5394314814
794,0.0
795,0.0
796,0.0
797,237.65746942177066
798,64.35101375364087
799,302.0084831754115
2,1, 7,21, 0, 6, 0.00,60.00,SummerDesignDay
8,9881269.76253951
734,2917581.9036511416
2,1, 7,21, 0, 6, 0.00,60.00,SummerDesignDay
680,0.0
681,0.0
682,0.0
731,1506930.6734999088
732,398240.3365005837
733,1905171.0100004924
782,0.0
783,0.0
784,0.0
785,418.59185374997463
786,110.62231569460658
787,529.2141694445812
788,0.0
789,0.0
790,0.0
791,795013.2573749113
792,217397.63627573792
793,1012410.8936506492
794,0.0
795,0.0
796,0.0
797,220.83701593747537
798,60.38823229881609
799,281.22524823629146
2,1, 7,21, 0, 7, 0.00,60.00,SummerDesignDay
8,9881269.76253951
734,22172217.488339096
2,1, 7,21, 0, 7, 0.00,60.00,SummerDesignDay
680,0.0
681,0.0
682,0.0
731,11624103.282369995
732,3038665.429263503
733,14662768.711633502
782,0.0
783,0.0
784,0.0
785,3228.9175784361105
786,844.0737303509729
787,4072.9913087870837
788,0.0
789,0.0
790,0.0
791,5932198.643813206
792,1577250.1328923893
793,7509448.776705596
794,0.0
795,0.0
796,0.0
797,1647.8329566147795
798,438.12503691455265
799,2085.957993529332
2,1, 7,21, 0, 8, 0.00,60.00,SummerDesignDay
8,9881269.76253951
734,14953918.878367975
2,1, 7,21, 0, 8, 0.00,60.00,SummerDesignDay
680,0.0
681,0.0
682,0.0
731,8250600.284124288
732,2043728.7334556654
733,10294329.017579954
782,0.0
783,0.0
784,0.0
785,2291.8334122567467
786,567.702425959907
787,2859.5358382166537
788,0.0
789,0.0
790,0.0
791,3737561.780337531
792,922028.0804504907
793,4659589.860788021
794,0.0
795,0.0
796,0.0
797,1038.2116056493142
798,256.1189112362474
799,1294.3305168855616
2,1, 7,21, 0, 9, 0.00,60.00,SummerDesignDay
8,9881269.76253951
734,18951219.888939712
2,1, 7,21, 0, 9, 0.00,60.00,SummerDesignDay
680,0.0
681,0.0
682,0.0
731,10837595.677936632
732,2477687.9932664023
733,13315283.671203034
782,0.0
783,0.0
784,0.0
785,3010.4432438712865
786,688.2466647962228
787,3698.6899086675094
788,0.0
789,0.0
790,0.0
791,4557011.737457875
792,1078924.480278804
793,5635936.217736679
794,0.0
795,0.0
796,0.0
797,1265.8365937382987
798,299.70124452189
799,1565.5378382601887
2,1, 7,21, 0,10, 0.00,60.00,SummerDesignDay
8,9881269.76253951
734,18889261.666456044
2,1, 7,21, 0,10, 0.00,60.00,SummerDesignDay
680,0.0
681,0.0
682,0.0
731,11089241.824408615
732,2351153.2769037727
733,13440395.101312388
782,0.0
783,0.0
784,0.0
785,3080.344951224615
786,653.0981324732702
787,3733.4430836978854
788,0.0
789,0.0
790,0.0
791,4410155.505225829
792,1038711.0599178274
793,5448866.565143656
794,0.0
795,0.0
796,0.0
797,1225.0431958960635
798,288.5308499771743
799,1513.5740458732378
2,1, 7,21, 0,11, 0.00,60.00,SummerDesignDay
8,9881269.76253951
734,19492461.02505172
2,1, 7,21, 0,11, 0.00,60.00,SummerDesignDay
680,0.0
681,0.0
682,0.0
731,11597080.132511856
732,2346840.3175610797
733,13943920.450072937
782,0.0
783,0.0
784,0.0
785,3221.41114791996
786,651.900088211411
787,3873.311236131371
788,0.0
789,0.0
790,0.0
791,4477220.543092252
792,1071320.0318865336
793,5548540.574978785
794,0.0
795,0.0
796,0.0
797,1243.672373081181
798,297.58889774625936
799,1541.2612708274403
2,1, 7,21, 0,12, 0.00,60.00,SummerDesignDay
8,9881269.76253951
734,19683907.709436588
2,1, 7,21, 0,12, 0.00,60.00,SummerDesignDay
680,0.0
681,0.0
682,0.0
731,11730208.137502937
732,2287195.8465996063
733,14017403.984102542
782,0.0
783,0.0
784,0.0
785,3258.391149306371
786,635.3321796110017
787,3893.723328917373
788,0.0
789,0.0
790,0.0
791,4573062.461017379
792,1093441.2643166697
793,5666503.725334048
794,0.0
795,0.0
796,0.0
797,1270.295128060383
798,303.73368453240823
799,1574.0288125927912
2,1, 7,21, 0,13, 0.00,60.00,SummerDesignDay
8,9881269.76253951
734,19793292.65956981
2,1, 7,21, 0,13, 0.00,60.00,SummerDesignDay
680,0.0
681,0.0
682,0.0
731,11756259.382461876
732,2243714.10275327
733,13999973.485215146
782,0.0
783,0.0
784,0.0
785,3265.62760623941
786,623.2539174314638
787,3888.881523670874
788,0.0
789,0.0
790,0.0
791,4689488.066360669
792,1103831.1079939965
793,5793319.174354666
794,0.0
795,0.0
796,0.0
797,1302.6355739890748
798,306.6197522205546
799,1609.2553262096294
2,1, 7,21, 0,14, 0.00,60.00,SummerDesignDay
8,9881269.76253951
734,20285089.323815316
2,1, 7,21, 0,14, 0.00,60.00,SummerDesignDay
680,0.0
681,0.0
682,0.0
731,12083670.213502517
732,2290496.8726403383
733,14374167.086142857
782,0.0
783,0.0
784,0.0
785,3356.575059306255
786,636.2491312889829
787,3992.8241905952377
788,0.0
789,0.0
790,0.0
791,4803481.663593063
792,1107440.5740793978
793,5910922.23767246
794,0.0
795,0.0
796,0.0
797,1334.300462109184
798,307.6223816887216
799,1641.9228437979057
2,1, 7,21, 0,15, 0.00,60.00,SummerDesignDay
8,9881269.76253951
734,20696300.715887006
2,1, 7,21, 0,15, 0.00,60.00,SummerDesignDay
680,0.0
681,0.0
682,0.0
731,12395535.966953883
732,2319089.4351477935
733,14714625.402101677
782,0.0
783,0.0
784,0.0
785,3443.2044352649677
786,644.1915097632759
787,4087.3959450282437
788,0.0
789,0.0
790,0.0
791,4878861.783533883
792,1102813.5302514469
793,5981675.31378533
794,0.0
795,0.0
796,0.0
797,1355.2393843149675
798,306.337091736513
799,1661.5764760514805
2,1, 7,21, 0,16, 0.00,60.00,SummerDesignDay
8,9881269.76253951
734,20683662.828641206
2,1, 7,21, 0,16, 0.00,60.00,SummerDesignDay
680,0.0
681,0.0
682,0.0
731,12420867.842475066
732,2277208.654155661
733,14698076.496630726
782,0.0
783,0.0
784,0.0
785,3450.241067354185
786,632.5579594876835
787,4082.7990268418685
788,0.0
789,0.0
790,0.0
791,4895259.734122387
792,1090326.597888093
793,5985586.332010481
794,0.0
795,0.0
796,0.0
797,1359.794370589552
798,302.86849941335913
799,1662.6628700029112
2,1, 7,21, 0,17, 0.00,60.00,SummerDesignDay
8,9881269.76253951
734,20374127.212593805
2,1, 7,21, 0,17, 0.00,60.00,SummerDesignDay
680,0.0
681,0.0
682,0.0
731,12202113.956600929
732,2213522.860194574
733,14415636.816795502
782,0.0
783,0.0
784,0.0
785,3389.4760990558134
786,614.8674611651595
787,4004.343560220973
788,0.0
789,0.0
790,0.0
791,4878899.751542172
792,1079590.6442561315
793,5958490.395798304
794,0.0
795,0.0
796,0.0
797,1355.2499309839368
798,299.88629007114764
799,1655.1362210550844
2,1, 7,21, 0,18, 0.00,60.00,SummerDesignDay
8,9881269.76253951
734,19735236.781442206
2,1, 7,21, 0,18, 0.00,60.00,SummerDesignDay
680,0.0
681,0.0
682,0.0
731,11677476.607282134
732,2134159.1084171226
733,13811635.715699257
782,0.0
783,0.0
784,0.0
785,3243.743502022815
786,592.8219745603119
787,3836.565476583127
788,0.0
789,0.0
790,0.0
791,4849801.29904902
792,1073799.7666939294
793,5923601.065742949
794,0.0
795,0.0
796,0.0
797,1347.1670275136166
798,298.27771297053596
799,1645.4447404841526
2,1, 7,21, 0,19, 0.00,60.00,SummerDesignDay
8,9881269.76253951
734,18507447.27152424
2,1, 7,21, 0,19, 0.00,60.00,SummerDesignDay
680,0.0
681,0.0
682,0.0
731,10697347.287793154
732,2010024.5541942897
733,12707371.841987444
782,0.0
783,0.0
784,0.0
785,2971.4853577203207
786,558.3401539428583
787,3529.825511663179
788,0.0
789,0.0
790,0.0
791,4744860.224888425
792,1055215.2046483697
793,5800075.429536795
794,0.0
795,0.0
796,0.0
797,1318.0167291356738
798,293.11533462454713
799,1611.132063760221
2,1, 7,21, 0,20, 0.00,60.00,SummerDesignDay
8,9881269.76253951
734,17405620.628004365
2,1, 7,21, 0,20, 0.00,60.00,SummerDesignDay
680,0.0
681,0.0
682,0.0
731,9753675.167846633
732,1936654.4762085816
733,11690329.644055214
782,0.0
783,0.0
784,0.0
785,2709.3542132907314
786,537.959576724606
787,3247.3137900153374
788,0.0
789,0.0
790,0.0
791,4665366.922384955
792,1049924.0615641947
793,5715290.983949149
794,0.0
795,0.0
796,0.0
797,1295.935256218043
798,291.6455726567208
799,1587.5808288747637
2,1, 7,21, 0,21, 0.00,60.00,SummerDesignDay
8,9881269.76253951
734,16744080.918459032
2,1, 7,21, 0,21, 0.00,60.00,SummerDesignDay
680,0.0
681,0.0
682,0.0
731,9169427.426165001
732,1950535.2317421483
733,11119962.65790715
782,0.0
783,0.0
784,0.0
785,2547.0631739347227
786,541.8153421505967
787,3088.8785160853195
788,0.0
789,0.0
790,0.0
791,4578750.000477192
792,1045368.2600746889
793,5624118.260551881
794,0.0
795,0.0
796,0.0
797,1271.8750001325534
798,290.38007224296916
799,1562.2550723755226
2,1, 7,21, 0,22, 0.00,60.00,SummerDesignDay
8,9881269.76253951
734,16185234.599240799
2,1, 7,21, 0,22, 0.00,60.00,SummerDesignDay
680,0.0
681,0.0
682,0.0
731,8726985.165441252
732,1966984.4067650465
733,10693969.5722063
782,0.0
783,0.0
784,0.0
785,2424.1625459559036
786,546.3845574347351
787,2970.5471033906388
788,0.0
789,0.0
790,0.0
791,4458506.960813582
792,1032758.066220918
793,5491265.0270345
794,0.0
795,0.0
796,0.0
797,1238.4741557815505
798,286.87724061692165
799,1525.3513963984722
2,1, 7,21, 0,23, 0.00,60.00,SummerDesignDay
8,9881269.76253951
734,3608105.43370241
2,1, 7,21, 0,23, 0.00,60.00,SummerDesignDay
680,0.0
681,0.0
682,0.0
731,2072588.4131110506
732,456569.771411033
733,2529158.1845220835
782,0.0
783,0.0
784,0.0
785,575.7190036419584
786,126.82493650306468
787,702.5439401450229
788,0.0
789,0.0
790,0.0
791,876840.5925194442
792,202106.65666088264
793,1078947.2491803267
794,0.0
795,0.0
796,0.0
797,243.56683125540107
798,56.14073796135627
799,299.70756921675735
2,1, 7,21, 0,24, 0.00,60.00,SummerDesignDay
8,9881269.76253951
734,2329562.030362756
2,1, 7,21, 0,24, 0.00,60.00,SummerDesignDay
680,0.0
681,0.0
682,0.0
731,1387768.0139591014
732,326526.39384362014
733,1714294.4078027217
782,0.0
783,0.0
784,0.0
785,385.4911149886393
786,90.70177606767226
787,476.19289105631157
788,0.0
789,0.0
790,0.0
791,493226.84946013393
792,122040.77309990056
793,615267.6225600345
794,0.0
795,0.0
796,0.0
797,137.00745818337055
798,33.90021474997238
799,170.90767293334292
1,BEIJING ANN HTG 99.6% CONDNS DB,  39.80, 116.47,   8.00,  31.30
2,1, 1,21, 0, 1, 0.00,60.00,WinterDesignDay
8,9881269.76253951
734,0.0
2,1, 1,21, 0, 1, 0.00,60.00,WinterDesignDay
680,13878413.772531724
681,0.0
682,13878413.772531724
731,0.0
732,0.0
733,0.0
782,3855.1149368143674
783,0.0
784,3855.1149368143674
785,0.0
786,0.0
787,0.0
788,7438818.37754582
789,0.0
790,7438818.37754582
791,0.0
792,0.0
793,0.0
794,2066.338438207172
795,0.0
796,2066.338438207172
797,0.0
798,0.0
799,0.0
2,1, 1,21, 0, 2, 0.00,60.00,WinterDesignDay
8,9881269.76253951
734,0.0
2,1, 1,21, 0, 2, 0.00,60.00,WinterDesignDay
680,13899205.615743846
681,0.0
682,13899205.615743846
731,0.0
732,0.0
733,0.0
782,3860.890448817735
783,0.0
784,3860.890448817735
785,0.0
786,0.0
787,0.0
788,7451662.563263842
789,0.0
790,7451662.563263842
791,0.0
792,0.0
793,0.0
794,2069.9062675732894
795,0.0
796,2069.9062675732894
797,0.0
798,0.0
799,0.0
2,1, 1,21, 0, 3, 0.00,60.00,WinterDesignDay
8,9881269.76253951
734,0.0
2,1, 1,21, 0, 3, 0.00,60.00,WinterDesignDay
680,13910202.020692902
681,0.0
682,13910202.020692902
731,0.0
732,0.0
733,0.0
782,3863.945005748028
783,0.0
784,3863.945005748028
785,0.0
786,0.0
787,0.0
788,7458792.292983999
789,0.0
790,7458792.292983999
791,0.0
792,0.0
793,0.0
794,2071.8867480511108
795,0.0
796,2071.8867480511108
797,0.0
798,0.0
799,0.0
2,1, 1,21, 0, 4, 0.00,60.00,WinterDesignDay
8,9881269.76253951
734,0.0
2,1, 1,21, 0, 4, 0.00,60.00,WinterDesignDay
680,13915786.771145413
681,0.0
682,13915786.771145413
731,0.0
732,0.0
733,0.0
782,3865.4963253181704
783,0.0
784,3865.4963253181704
785,0.0
786,0.0
787,0.0
788,7462435.598333898
789,0.0
790,7462435.598333898
791,0.0
792,0.0
793,0.0
794,2072.8987773149715
795,0.0
796,2072.8987773149715
797,0.0
798,0.0
799,0.0
2,1, 1,21, 0, 5, 0.00,60.00,WinterDesignDay
8,9881269.76253951
734,0.0
2,1, 1,21, 0, 5, 0.00,60.00,WinterDesignDay
680,13919507.617135953
681,0.0
682,13919507.617135953
731,0.0
732,0.0
733,0.0
782,3866.5298936488757
783,0.0
784,3866.5298936488757
785,0.0
786,0.0
787,0.0
788,7464883.855068278
789,0.0
790,7464883.855068278
791,0.0
792,0.0
793,0.0
794,2073.578848630077
795,0.0
796,2073.578848630077
797,0.0
798,0.0
799,0.0
2,1, 1,21, 0, 6, 0.00,60.00,WinterDesignDay
8,9881269.76253951
734,0.0
2,1, 1,21, 0, 6, 0.00,60.00,WinterDesignDay
680,13922565.730486
681,0.0
682,13922565.730486
731,0.0
732,0.0
733,0.0
782,3867.3793695794443
783,0.0
784,3867.3793695794443
785,0.0
786,0.0
787,0.0
788,7466923.867744508
789,0.0
790,7466923.867744508
791,0.0
792,0.0
793,0.0
794,2074.145518817919
795,0.0
796,2074.145518817919
797,0.0
798,0.0
799,0.0
2,1, 1,21, 0, 7, 0.00,60.00,WinterDesignDay
8,9881269.76253951
734,0.0
2,1, 1,21, 0, 7, 0.00,60.00,WinterDesignDay
680,14573683.9306767
681,0.0
682,14573683.9306767
731,0.0
732,0.0
733,0.0
782,4048.2455362990836
783,0.0
784,4048.2455362990836
785,0.0
786,0.0
787,0.0
788,7229773.69779786
789,0.0
790,7229773.69779786
791,0.0
792,0.0
793,0.0
794,2008.2704716105166
795,0.0
796,2008.2704716105166
797,0.0
798,0.0
799,0.0
2,1, 1,21, 0, 8, 0.00,60.00,WinterDesignDay
8,9881269.76253951
734,0.0
2,1, 1,21, 0, 8, 0.00,60.00,WinterDesignDay
680,14478492.780382898
681,0.0
682,14478492.780382898
731,0.0
732,0.0
733,0.0
782,4021.8035501063605
783,0.0
784,4021.8035501063605
785,0.0
786,0.0
787,0.0
788,7176536.386596609
789,0.0
790,7176536.386596609
791,0.0
792,0.0
793,0.0
794,1993.482329610169
795,0.0
796,1993.482329610169
797,0.0
798,0.0
799,0.0
2,1, 1,21, 0, 9, 0.00,60.00,WinterDesignDay
8,9881269.76253951
734,0.0
2,1, 1,21, 0, 9, 0.00,60.00,WinterDesignDay
680,14443446.85506383
681,0.0
682,14443446.85506383
731,0.0
732,0.0
733,0.0
782,4012.0685708510637
783,0.0
784,4012.0685708510637
785,0.0
786,0.0
787,0.0
788,7155466.495932204
789,0.0
790,7155466.495932204
791,0.0
792,0.0
793,0.0
794,1987.6295822033899
795,0.0
796,1987.6295822033899
797,0.0
798,0.0
799,0.0
2,1, 1,21, 0,10, 0.00,60.00,WinterDesignDay
8,9881269.76253951
734,0.0
2,1, 1,21, 0,10, 0.00,60.00,WinterDesignDay
680,14428854.363170143
681,0.0
682,14428854.363170143
731,0.0
732,0.0
733,0.0
782,4008.015100880595
783,0.0
784,4008.015100880595
785,0.0
786,0.0
787,0.0
788,7146367.211954803
789,0.0
790,7146367.211954803
791,0.0
792,0.0
793,0.0
794,1985.1020033207787
795,0.0
796,1985.1020033207787
797,0.0
798,0.0
799,0.0
2,1, 1,21, 0,11, 0.00,60.00,WinterDesignDay
8,9881269.76253951
734,0.0
2,1, 1,21, 0,11, 0.00,60.00,WinterDesignDay
680,14421467.402595028
681,0.0
682,14421467.402595028
731,0.0
732,0.0
733,0.0
782,4005.963167387508
783,0.0
784,4005.963167387508
785,0.0
786,0.0
787,0.0
788,7141665.463264148
789,0.0
790,7141665.463264148
791,0.0
792,0.0
793,0.0
794,1983.7959620178187
795,0.0
796,1983.7959620178187
797,0.0
798,0.0
799,0.0
2,1, 1,21, 0,12, 0.00,60.00,WinterDesignDay
8,9881269.76253951
734,0.0
2,1, 1,21, 0,12, 0.00,60.00,WinterDesignDay
680,14418066.345335698
681,0.0
682,14418066.345335698
731,0.0
732,0.0
733,0.0
782,4005.018429259916
783,0.0
784,4005.018429259916
785,0.0
786,0.0
787,0.0
788,7139546.137645005
789,0.0
790,7139546.137645005
791,0.0
792,0.0
793,0.0
794,1983.207260456946
795,0.0
796,1983.207260456946
797,0.0
798,0.0
799,0.0
2,1, 1,21, 0,13, 0.00,60.00,WinterDesignDay
8,9881269.76253951
734,0.0
2,1, 1,21, 0,13, 0.00,60.00,WinterDesignDay
680,14416135.315805856
681,0.0
682,14416135.315805856
731,0.0
732,0.0
733,0.0
782,4004.4820321682932
783,0.0
784,4004.4820321682932
785,0.0
786,0.0
787,0.0
788,7138381.6326604625
789,0.0
790,7138381.6326604625
791,0.0
792,0.0
793,0.0
794,1982.8837868501284
795,0.0
796,1982.8837868501284
797,0.0
798,0.0
799,0.0
2,1, 1,21, 0,14, 0.00,60.00,WinterDesignDay
8,9881269.76253951
734,0.0
2,1, 1,21, 0,14, 0.00,60.00,WinterDesignDay
680,14414800.933034426
681,0.0
682,14414800.933034426
731,0.0
732,0.0
733,0.0
782,4004.1113702873404
783,0.0
784,4004.1113702873404
785,0.0
786,0.0
787,0.0
788,7137599.626389505
789,0.0
790,7137599.626389505
791,0.0
792,0.0
793,0.0
794,1982.6665628859737
795,0.0
796,1982.6665628859737
797,0.0
798,0.0
799,0.0
2,1, 1,21, 0,15, 0.00,60.00,WinterDesignDay
8,9881269.76253951
734,0.0
2,1, 1,21, 0,15, 0.00,60.00,WinterDesignDay
680,14413922.723495474
681,0.0
682,14413922.723495474
731,0.0
732,0.0
733,0.0
782,4003.8674231931873
783,0.0
784,4003.8674231931873
785,0.0
786,0.0
787,0.0
788,7137109.843342765
789,0.0
790,7137109.843342765
791,0.0
792,0.0
793,0.0
794,1982.530512039657
795,0.0
796,1982.530512039657
797,0.0
798,0.0
799,0.0
2,1, 1,21, 0,16, 0.00,60.00,WinterDesignDay
8,9881269.76253951
734,0.0
2,1, 1,21, 0,16, 0.00,60.00,WinterDesignDay
680,14413375.810126185
681,0.0
682,14413375.810126185
731,0.0
732,0.0
733,0.0
782,4003.715502812829
783,0.0
784,4003.715502812829
785,0.0
786,0.0
787,0.0
788,7136832.722848151
789,0.0
790,7136832.722848151
791,0.0
792,0.0
793,0.0
794,1982.4535341244864
795,0.0
796,1982.4535341244864
797,0.0
798,0.0
799,0.0
2,1, 1,21, 0,17, 0.00,60.00,WinterDesignDay
8,9881269.76253951
734,0.0
2,1, 1,21, 0,17, 0.00,60.00,WinterDesignDay
680,14413063.427581364
681,0.0
682,14413063.427581364
731,0.0
732,0.0
733,0.0
782,4003.6287298837124
783,0.0
784,4003.6287298837124
785,0.0
786,0.0
787,0.0
788,7136706.685527636
789,0.0
790,7136706.685527636
791,0.0
792,0.0
793,0.0
794,1982.4185237576767
795,0.0
796,1982.4185237576767
797,0.0
798,0.0
799,0.0
2,1, 1,21, 0,18, 0.00,60.00,WinterDesignDay
8,9881269.76253951
734,0.0
2,1, 1,21, 0,18, 0.00,60.00,WinterDesignDay
680,14412915.334775157
681,0.0
682,14412915.334775157
731,0.0
732,0.0
733,0.0
782,4003.5875929930994
783,0.0
784,4003.5875929930994
785,0.0
786,0.0
787,0.0
788,7136686.539393563
789,0.0
790,7136686.539393563
791,0.0
792,0.0
793,0.0
794,1982.4129276093229
795,0.0
796,1982.4129276093229
797,0.0
798,0.0
799,0.0
2,1, 1,21, 0,19, 0.00,60.00,WinterDesignDay
8,9881269.76253951
734,0.0
2,1, 1,21, 0,19, 0.00,60.00,WinterDesignDay
680,20633683.569758732
681,0.0
682,20633683.569758732
731,0.0
732,0.0
733,0.0
782,5731.5787693774255
783,0.0
784,5731.5787693774255
785,0.0
786,0.0
787,0.0
788,10807780.921989918
789,0.0
790,10807780.921989918
791,0.0
792,0.0
793,0.0
794,3002.1613672194217
795,0.0
796,3002.1613672194217
797,0.0
798,0.0
799,0.0
2,1, 1,21, 0,20, 0.00,60.00,WinterDesignDay
8,9881269.76253951
734,0.0
2,1, 1,21, 0,20, 0.00,60.00,WinterDesignDay
680,20633787.31632465
681,0.0
682,20633787.31632465
731,0.0
732,0.0
733,0.0
782,5731.6075878679585
783,0.0
784,5731.6075878679585
785,0.0
786,0.0
787,0.0
788,10807884.379163966
789,0.0
790,10807884.379163966
791,0.0
792,0.0
793,0.0
794,3002.1901053233237
795,0.0
796,3002.1901053233237
797,0.0
798,0.0
799,0.0
2,1, 1,21, 0,21, 0.00,60.00,WinterDesignDay
8,9881269.76253951
734,0.0
2,1, 1,21, 0,21, 0.00,60.00,WinterDesignDay
680,20633939.25316681
681,0.0
682,20633939.25316681
731,0.0
732,0.0
733,0.0
782,5731.649792546336
783,0.0
784,5731.649792546336
785,0.0
786,0.0
787,0.0
788,10808021.60596303
789,0.0
790,10808021.60596303
791,0.0
792,0.0
793,0.0
794,3002.2282238786197
795,0.0
796,3002.2282238786197
797,0.0
798,0.0
799,0.0
2,1, 1,21, 0,22, 0.00,60.00,WinterDesignDay
8,9881269.76253951
734,0.0
2,1, 1,21, 0,22, 0.00,60.00,WinterDesignDay
680,20634105.067740675
681,0.0
682,20634105.067740675
731,0.0
732,0.0
733,0.0
782,5731.695852150187
783,0.0
784,5731.695852150187
785,0.0
786,0.0
787,0.0
788,10808180.851031411
789,0.0
790,10808180.851031411
791,0.0
792,0.0
793,0.0
794,3002.2724586198365
795,0.0
796,3002.2724586198365
797,0.0
798,0.0
799,0.0
2,1, 1,21, 0,23, 0.00,60.00,WinterDesignDay
8,9881269.76253951
734,0.0
2,1, 1,21, 0,23, 0.00,60.00,WinterDesignDay
680,14108855.2168713
681,0.0
682,14108855.2168713
731,0.0
732,0.0
733,0.0
782,3919.1264491309166
783,0.0
784,3919.1264491309166
785,0.0
786,0.0
787,0.0
788,7548365.4241892295
789,0.0
790,7548365.4241892295
791,0.0
792,0.0
793,0.0
794,2096.768173385897
795,0.0
796,2096.768173385897
797,0.0
798,0.0
799,0.0
2,1, 1,21, 0,24, 0.00,60.00,WinterDesignDay
8,9881269.76253951
734,0.0
2,1, 1,21, 0,24, 0.00,60.00,WinterDesignDay
680,14202652.699204527
681,0.0
682,14202652.699204527
731,0.0
732,0.0
733,0.0
782,3945.181305334591
783,0.0
784,3945.181305334591
785,0.0
786,0.0
787,0.0
788,7601328.496709395
789,0.0
790,7601328.496709395
791,0.0
792,0.0
793,0.0
794,2111.480137974832
795,0.0
796,2111.480137974832
797,0.0
798,0.0
799,0.0
1,RUN PERIOD 1,  39.80, 116.47,   8.00,  31.30
2,1, 1, 1, 0, 1, 0.00,60.00,Tuesday
8,1938472.626945253
734,0.0
2,1, 1, 1, 0, 1, 0.00,60.00,Tuesday
680,3342534.8149781744
681,0.0
682,3342534.8149781744
731,0.0
732,0.0
733,0.0
782,928.4818930494929
783,0.0
784,928.4818930494929
785,0.0
786,0.0
787,0.0
788,1197818.2036859458
789,0.0
790,1197818.2036859458
791,0.0
792,0.0
793,0.0
794,332.7272788016516
795,0.0
796,332.7272788016516
797,0.0
798,0.0
799,0.0
2,1, 1, 1, 0, 2, 0.00,60.00,Tuesday
8,1938472.626945253
734,0.0
2,1, 1, 1, 0, 2, 0.00,60.00,Tuesday
680,4568331.320655198
681,0.0
682,4568331.320655198
731,0.0
732,0.0
733,0.0
782,1268.9809224042217
783,0.0
784,1268.9809224042217
785,0.0
786,0.0
787,0.0
788,2084940.0919621345
789,0.0
790,2084940.0919621345
791,0.0
792,0.0
793,0.0
794,579.1500255450374
795,0.0
796,579.1500255450374
797,0.0
798,0.0
799,0.0
2,1, 1, 1, 0, 3, 0.00,60.00,Tuesday
8,1938472.626945253
734,0.0
2,1, 1, 1, 0, 3, 0.00,60.00,Tuesday
680,5264919.381255988
681,0.0
682,5264919.381255988
731,0.0
732,0.0
733,0.0
782,1462.4776059044411
783,0.0
784,1462.4776059044411
785,0.0
786,0.0
787,0.0
788,2453939.7240982545
789,0.0
790,2453939.7240982545
791,0.0
792,0.0
793,0.0
794,681.6499233606263
795,0.0
796,681.6499233606263
797,0.0
798,0.0
799,0.0
2,1, 1, 1, 0, 4, 0.00,60.00,Tuesday
8,1938472.626945253
734,0.0
2,1, 1, 1, 0, 4, 0.00,60.00,Tuesday
680,5911227.164170959
681,0.0
682,5911227.164170959
731,0.0
732,0.0
733,0.0
782,1642.0075456030443
783,0.0
784,1642.0075456030443
785,0.0
786,0.0
787,0.0
788,2882089.6500117783
789,0.0
790,2882089.6500117783
791,0.0
792,0.0
793,0.0
794,800.5804583366051
795,0.0
796,800.5804583366051
797,0.0
798,0.0
799,0.0
2,1, 1, 1, 0, 5, 0.00,60.00,Tuesday
8,1938472.626945253
734,0.0
2,1, 1, 1, 0, 5, 0.00,60.00,Tuesday
680,6476236.881372178
681,0.0
682,6476236.881372178
731,0.0
732,0.0
733,0.0
782,1798.9546892700494
783,0.0
784,1798.9546892700494
785,0.0
786,0.0
787,0.0
788,3190771.6038854583
789,0.0
790,3190771.6038854583
791,0.0
792,0.0
793,0.0
794,886.3254455237384
795,0.0
796,886.3254455237384
797,0.0
798,0.0
799,0.0
2,1, 1, 1, 0, 6, 0.00,60.00,Tuesday
8,2226191.952383903
734,0.0
2,1, 1, 1, 0, 6, 0.00,60.00,Tuesday
680,6687565.759635292
681,0.0
682,6687565.759635292
731,0.0
732,0.0
733,0.0
782,1857.6571554542477
783,0.0
784,1857.6571554542477
785,0.0
786,0.0
787,0.0
788,3356061.5677639716
789,0.0
790,3356061.5677639716
791,0.0
792,0.0
793,0.0
794,932.239324378881
795,0.0
796,932.239324378881
797,0.0
798,0.0
799,0.0
2,1, 1, 1, 0, 7, 0.00,60.00,Tuesday
8,2226191.952383903
734,0.0
2,1, 1, 1, 0, 7, 0.00,60.00,Tuesday
680,18039697.942573022
681,0.0
682,18039697.942573022
731,0.0
732,0.0
733,0.0
782,5011.027206270285
783,0.0
784,5011.027206270285
785,0.0
786,0.0
787,0.0
788,9601384.978036027
789,0.0
790,9601384.978036027
791,0.0
792,0.0
793,0.0
794,2667.0513827877858
795,0.0
796,2667.0513827877858
797,0.0
798,0.0
799,0.0
2,1, 1, 1, 0, 8, 0.00,60.00,Tuesday
8,3377069.2541385037
734,0.0