Program Version,EnergyPlus, Version 23.2.0-7636e6b3e9, YMD=2024.10.25 17:33
1,5,Environment Title[],Latitude[deg],Longitude[deg],Time Zone[],Elevation[m]
2,8,Day of Simulation[],Month[],Day of Month[],DST Indicator[1=yes 0=no],Hour[],StartMinute[],EndMinute[],DayType
3,5,Cumulative Day of Simulation[],Month[],Day of Month[],DST Indicator[1=yes 0=no],DayType  ! When Daily Meters Requested
4,2,Cumulative Days of Simulation[],Month[]  ! When Monthly Meters Requested
5,1,Cumulative Days of Simulation[] ! When Run Period Meters Requested
6,1,Calendar Year of Simulation[] ! When Annual Meters Requested
8,1,Electricity:Facility [J] !TimeStep
734,1,DistrictCooling:Facility [J] !TimeStep
10,7,Electricity:Facility [J] !Daily [Value,Min,Hour,Minute,Max,Hour,Minute]
End of Data Dictionary
1,BEIJING ANN CLG .4% CONDNS DB=>MWB,  39.80, 116.47,   8.00,  31.30
2,1, 7,21, 0, 1, 0.00,60.00,SummerDesignDay
8,9881269.76253951
734,3078142.417323874
2,1, 7,21, 0, 2, 0.00,60.00,SummerDesignDay
8,9881269.76253951
734,3772154.838848302
2,1, 7,21, 0, 3, 0.00,60.00,SummerDesignDay
8,9881269.76253951
734,3716817.940861374
2,1, 7,21, 0, 4, 0.00,60.00,SummerDesignDay
8,9881269.76253951
734,3395443.3878090894
2,1, 7,21, 0, 5, 0.00,60.00,SummerDesignDay
8,9881269.76253951
734,3023089.648268845
2,1, 7,21, 0, 6, 0.00,60.00,SummerDesignDay
8,9881269.76253951
734,2917581.9036511416
2,1, 7,21, 0, 7, 0.00,60.00,SummerDesignDay
8,9881269.76253951
734,22172217.488339096
2,1, 7,21, 0, 8, 0.00,60.00,SummerDesignDay
8,9881269.76253951
734,14953918.878367975
2,1, 7,21, 0, 9, 0.00,60.00,SummerDesignDay
8,9881269.76253951
734,18951219.888939712
2,1, 7,21, 0,10, 0.00,60.00,SummerDesignDay
8,9881269.76253951
734,18889261.666456044
2,1, 7,21, 0,11, 0.00,60.00,SummerDesignDay
8,9881269.76253951
734,19492461.02505172
2,1, 7,21, 0,12, 0.00,60.00,SummerDesignDay
8,9881269.76253951
734,19683907.709436588
2,1, 7,21, 0,13, 0.00,60.00,SummerDesignDay
8,9881269.76253951
734,19793292.65956981
2,1, 7,21, 0,14, 0.00,60.00,SummerDesignDay
8,9881269.76253951
734,20285089.323815316
2,1, 7,21, 0,15, 0.00,60.00,SummerDesignDay
8,9881269.76253951
734,20696300.715887006
2,1, 7,21, 0,16, 0.00,60.00,SummerDesignDay
8,9881269.76253951
734,20683662.828641206
2,1, 7,21, 0,17, 0.00,60.00,SummerDesignDay
8,9881269.76253951
734,20374127.212593805
2,1, 7,21, 0,18, 0.00,60.00,SummerDesignDay
8,9881269.76253951
734,19735236.781442206
2,1, 7,21, 0,19, 0.00,60.00,SummerDesignDay
8,9881269.76253951
734,18507447.27152424
2,1, 7,21, 0,20, 0.00,60.00,SummerDesignDay
8,9881269.76253951
734,17405620.628004365
2,1, 7,21, 0,21, 0.00,60.00,SummerDesignDay
8,9881269.76253951
734,16744080.918459032
2,1, 7,21, 0,22, 0.00,60.00,SummerDesignDay
8,9881269.76253951
734,16185234.599240799
2,1, 7,21, 0,23, 0.00,60.00,SummerDesignDay
8,9881269.76253951
734,3608105.43370241
2,1, 7,21, 0,24, 0.00,60.00,SummerDesignDay
8,9881269.76253951
734,2329562.030362756
3,1, 7,21, 0,SummerDesignDay
10,237150474.30094817,9881269.76253951, 1,60,9881269.76253951, 1,60
1,BEIJING ANN HTG 99.6% CONDNS DB,  39.80, 116.47,   8.00,  31.30
2,1, 1,21, 0, 1, 0.00,60.00,WinterDesignDay
8,9881269.76253951
734,0.0
2,1, 1,21, 0, 2, 0.00,60.00,WinterDesignDay
8,9881269.76253951
734,0.0
2,1, 1,21, 0, 3, 0.00,60.00,WinterDesignDay
8,9881269.76253951
734,0.0
2,1, 1,21, 0, 4, 0.00,60.00,WinterDesignDay
8,9881269.76253951
734,0.0
2,1, 1,21, 0, 5, 0.00,60.00,WinterDesignDay
8,9881269.76253951
734,0.0
2,1, 1,21, 0, 6, 0.00,60.00,WinterDesignDay
8,9881269.76253951
734,0.0
2,1, 1,21, 0, 7, 0.00,60.00,WinterDesignDay
8,9881269.76253951
734,0.0
2,1, 1,21, 0, 8, 0.00,60.00,WinterDesignDay
8,9881269.76253951
734,0.0
2,1, 1,21, 0, 9, 0.00,60.00,WinterDesignDay
8,9881269.76253951
734,0.0
2,1, 1,21, 0,10, 0.00,60.00,WinterDesignDay
8,9881269.76253951
734,0.0
2,1, 1,21, 0,11, 0.00,60.00,WinterDesignDay
8,9881269.76253951
734,0.0
2,1, 1,21, 0,12, 0.00,60.00,WinterDesignDay
8,9881269.76253951
734,0.0
2,1, 1,21, 0,13, 0.00,60.00,WinterDesignDay
8,9881269.76253951
734,0.0
2,1, 1,21, 0,14, 0.00,60.00,WinterDesignDay
8,9881269.76253951
734,0.0
2,1, 1,21, 0,15, 0.00,60.00,WinterDesignDay
8,9881269.76253951
734,0.0
2,1, 1,21, 0,16, 0.00,60.00,WinterDesignDay
8,9881269.76253951
734,0.0
2,1, 1,21, 0,17, 0.00,60.00,WinterDesignDay
8,9881269.76253951
734,0.0
2,1, 1,21, 0,18, 0.00,60.00,WinterDesignDay
8,9881269.76253951
734,0.0
2,1, 1,21, 0,19, 0.00,60.00,WinterDesignDay
8,9881269.76253951
734,0.0
2,1, 1,21, 0,20, 0.00,60.00,WinterDesignDay
8,9881269.76253951
734,0.0
2,1, 1,21, 0,21, 0.00,60.00,WinterDesignDay
8,9881269.76253951
734,0.0
2,1, 1,21, 0,22, 0.00,60.00,WinterDesignDay
8,9881269.76253951
734,0.0
2,1, 1,21, 0,23, 0.00,60.00,WinterDesignDay
8,9881269.76253951
734,0.0
2,1, 1,21, 0,24, 0.00,60.00,WinterDesignDay
8,9881269.76253951
734,0.0
3,1, 1,21, 0,WinterDesignDay
10,237150474.30094817,9881269.76253951, 1,60,9881269.76253951, 1,60
1,RUN PERIOD 1,  39.80, 116.47,   8.00,  31.30
2,1, 1, 1, 0, 1, 0.00,60.00,Tuesday
8,1938472.626945253
734,0.0
2,1, 1, 1, 0, 2, 0.00,60.00,Tuesday
8,1938472.626945253
734,0.0
2,1, 1, 1, 0, 3, 0.00,60.00,Tuesday
8,1938472.626945253
734,0.0
2,1, 1, 1, 0, 4, 0.00,60.00,Tuesday
8,1938472.626945253
734,0.0
2,1, 1, 1, 0, 5, 0.00,60.00,Tuesday
8,1938472.626945253
734,0.0
2,1, 1, 1, 0, 6, 0.00,60.00,Tuesday
8,2226191.952383903
734,0.0
2,1, 1, 1, 0, 7, 0.00,60.00,Tuesday
8,2226191.952383903
734,0.0
2,1, 1, 1, 0, 8, 0.00,60.00,Tuesday
8,3377069.2541385037
734,0.0
2,1, 1, 1, 0, 9, 0.00,60.00,Tuesday
8,8893142.786285559
734,0.0
2,1, 1, 1, 0,10, 0.00,60.00,Tuesday
8,8893142.786285559
734,0.0
2,1, 1, 1, 0,11, 0.00,60.00,Tuesday
8,8893142.786285559
734,0.0
2,1, 1, 1, 0,12, 0.00,60.00,Tuesday
8,8893142.786285559
734,0.0
2,1, 1, 1, 0,13, 0.00,60.00,Tuesday
8,8480454.460908908
734,0.0
2,1, 1, 1, 0,14, 0.00,60.00,Tuesday
8,8893142.786285559
734,0.0
2,1, 1, 1, 0,15, 0.00,60.00,Tuesday
8,8893142.786285559
734,0.0
2,1, 1, 1, 0,16, 0.00,60.00,Tuesday
8,8893142.786285559
734,0.0
2,1, 1, 1, 0,17, 0.00,60.00,Tuesday
8,8893142.786285559
734,0.0
2,1, 1, 1, 0,18, 0.00,60.00,Tuesday
8,7329577.159154307
734,0.0
2,1, 1, 1, 0,19, 0.00,60.00,Tuesday
8,5353323.206646405
734,0.0
2,1, 1, 1, 0,20, 0.00,60.00,Tuesday
8,5353323.206646405
734,0.0
2,1, 1, 1, 0,21, 0.00,60.00,Tuesday
8,3789757.579515154
734,0.0
2,1, 1, 1, 0,22, 0.00,60.00,Tuesday
8,3789757.579515154
734,0.0
2,1, 1, 1, 0,23, 0.00,60.00,Tuesday
8,2226191.952383903
734,0.0
2,1, 1, 1, 0,24, 0.00,60.00,Tuesday
8,1938472.626945253
734,0.0
3,1, 1, 1, 0,Tuesday
10,126927816.35563257,1938472.626945253, 1,60,8893142.786285559, 9,60
2,2, 1, 2, 0, 1, 0.00,60.00,Wednesday
8,1938472.626945253
734,0.0
2,2, 1, 2, 0, 2, 0.00,60.00,Wednesday
8,1938472.626945253
734,0.0
2,2, 1, 2, 0, 3, 0.00,60.00,Wednesday
8,1938472.626945253
734,0.0
2,2, 1, 2, 0, 4, 0.00,60.00,Wednesday
8,1938472.626945253
734,0.0
2,2, 1, 2, 0, 5, 0.00,60.00,Wednesday
8,1938472.626945253
734,0.0
2,2, 1, 2, 0, 6, 0.00,60.00,Wednesday
8,2226191.952383903
734,0.0
2,2, 1, 2, 0, 7, 0.00,60.00,Wednesday
8,2226191.952383903
734,0.0
2,2, 1, 2, 0, 8, 0.00,60.00,Wednesday
8,3377069.2541385037
734,0.0
2,2, 1, 2, 0, 9, 0.00,60.00,Wednesday
8,8893142.786285559
734,0.0
2,2, 1, 2, 0,10, 0.00,60.00,Wednesday
8,8893142.786285559
734,0.0
2,2, 1, 2, 0,11, 0.00,60.00,Wednesday
8,8893142.786285559
734,0.0
2,2, 1, 2, 0,12, 0.00,60.00,Wednesday
8,8893142.786285559
734,0.0
2,2, 1, 2, 0,13, 0.00,60.00,Wednesday
8,8480454.460908908
734,0.0
2,2, 1, 2, 0,14, 0.00,60.00,Wednesday
8,8893142.786285559
734,0.0
2,2, 1, 2, 0,15, 0.00,60.00,Wednesday
8,8893142.786285559
734,0.0
2,2, 1, 2, 0,16, 0.00,60.00,Wednesday
8,8893142.786285559
734,0.0
2,2, 1, 2, 0,17, 0.00,60.00,Wednesday
8,8893142.786285559
734,0.0
2,2, 1, 2, 0,18, 0.00,60.00,Wednesday
8,7329577.159154307
734,0.0
2,2, 1, 2, 0,19, 0.00,60.00,Wednesday
8,5353323.206646405
734,0.0
2,2, 1, 2, 0,20, 0.00,60.00,Wednesday
8,5353323.206646405
734,0.0
2,2, 1, 2, 0,21, 0.00,60.00,Wednesday
8,3789757.579515154
734,0.0
2,2, 1, 2, 0,22, 0.00,60.00,Wednesday
8,3789757.579515154
734,0.0
2,2, 1, 2, 0,23, 0.00,60.00,Wednesday
8,2226191.952383903
734,0.0
2,2, 1, 2, 0,24, 0.00,60.00,Wednesday
8,1938472.626945253
734,0.0
3,2, 1, 2, 0,Wednesday
10,126927816.35563257,1938472.626945253, 1,60,8893142.786285559, 9,60
2,3, 1, 3, 0, 1, 0.00,60.00,Thursday
8,1938472.626945253
734,0.0
2,3, 1, 3, 0, 2, 0.00,60.00,Thursday
8,1938472.626945253
734,0.0
2,3, 1, 3, 0, 3, 0.00,60.00,Thursday
8,1938472.626945253
734,0.0
2,3, 1, 3, 0, 4, 0.00,60.00,Thursday
8,1938472.626945253
734,0.0
2,3, 1, 3, 0, 5, 0.00,60.00,Thursday
8,1938472.626945253
734,0.0
2,3, 1, 3, 0, 6, 0.00,60.00,Thursday
8,2226191.952383903
734,0.0
2,3, 1, 3, 0, 7, 0.00,60.00,Thursday
8,2226191.952383903
734,0.0
2,3, 1, 3, 0, 8, 0.00,60.00,Thursday
8,3377069.2541385037
734,0.0
2,3, 1, 3, 0, 9, 0.00,60.00,Thursday
8,8893142.786285559
734,0.0
2,3, 1, 3, 0,10, 0.00,60.00,Thursday
8,8893142.786285559
734,0.0
2,3, 1, 3, 0,11, 0.00,60.00,Thursday
8,8893142.786285559
734,0.0
2,3, 1, 3, 0,12, 0.00,60.00,Thursday
8,8893142.786285559
734,0.0
2,3, 1, 3, 0,13, 0.00,60.00,Thursday
8,8480454.460908908
734,0.0
2,3, 1, 3, 0,14, 0.00,60.00,Thursday
8,8893142.786285559
734,0.0
2,3, 1, 3, 0,15, 0.00,60.00,Thursday
8,8893142.786285559
734,0.0
2,3, 1, 3, 0,16, 0.00,60.00,Thursday
8,8893142.786285559
734,0.0
2,3, 1, 3, 0,17, 0.00,60.00,Thursday
8,8893142.786285559
734,0.0
2,3, 1, 3, 0,18, 0.00,60.00,Thursday
8,7329577.159154307
734,0.0
2,3, 1, 3, 0,19, 0.00,60.00,Thursday
8,5353323.206646405
734,0.0
2,3, 1, 3, 0,20, 0.00,60.00,Thursday
8,5353323.206646405
734,0.0
2,3, 1, 3, 0,21, 0.00,60.00,Thursday
8,3789757.579515154
734,0.0
2,3, 1, 3, 0,22, 0.00,60.00,Thursday
8,3789757.579515154
734,0.0
2,3, 1, 3, 0,23, 0.00,60.00,Thursday
8,2226191.952383903
734,0.0
2,3, 1, 3, 0,24, 0.00,60.00,Thursday
8,1938472.626945253
734,0.0
3,3, 1, 3, 0,Thursday
10,126927816.35563257,1938472.626945253, 1,60,8893142.786285559, 9,60
2,4, 1, 4, 0, 1, 0.00,60.00,Friday
8,1938472.626945253
734,0.0
2,4, 1, 4, 0, 2, 0.00,60.00,Friday
8,1938472.626945253
734,0.0
2,4, 1, 4, 0, 3, 0.00,60.00,Friday
8,1938472.626945253
734,0.0
2,4, 1, 4, 0, 4, 0.00,60.00,Friday
8,1938472.626945253
734,0.0
2,4, 1, 4, 0, 5, 0.00,60.00,Friday
8,1938472.626945253
734,0.0
2,4, 1, 4, 0, 6, 0.00,60.00,Friday
8,2226191.952383903
734,0.0
2,4, 1, 4, 0, 7, 0.00,60.00,Friday
8,2226191.952383903
734,0.0
2,4, 1, 4, 0, 8, 0.00,60.00,Friday
8,3377069.2541385037
734,0.0
2,4, 1, 4, 0, 9, 0.00,60.00,Friday
8,8893142.786285559
734,0.0
2,4, 1, 4, 0,10, 0.00,60.00,Friday
8,8893142.786285559
734,0.0
2,4, 1, 4, 0,11, 0.00,60.00,Friday
8,8893142.786285559
734,0.0
2,4, 1, 4, 0,12, 0.00,60.00,Friday
8,8893142.786285559
734,0.0
2,4, 1, 4, 0,13, 0.00,60.00,Friday
8,8480454.460908908
734,0.0
2,4, 1, 4, 0,14, 0.00,60.00,Friday
8,8893142.786285559
734,0.0
2,4, 1, 4, 0,15, 0.00,60.00,Friday
8,8893142.786285559
734,0.0
2,4, 1, 4, 0,16, 0.00,60.00,Friday
8,8893142.786285559
734,0.0
2,4, 1, 4, 0,17, 0.00,60.00,Friday
8,8893142.786285559
734,0.0
2,4, 1, 4, 0,18, 0.00,60.00,Friday
8,7329577.159154307
734,0.0
2,4, 1, 4, 0,19, 0.00,60.00,Friday
8,5353323.206646405
734,0.0
2,4, 1, 4, 0,20, 0.00,60.00,Friday
8,5353323.206646405
734,0.0
2,4, 1, 4, 0,21, 0.00,60.00,Friday
8,3789757.579515154
734,0.0
2,4, 1, 4, 0,22, 0.00,60.00,Friday
8,3789757.579515154
734,0.0
2,4, 1, 4, 0,23, 0.00,60.00,Friday
8,2226191.952383903
734,0.0
2,4, 1, 4, 0,24, 0.00,60.00,Friday
8,1938472.626945253
734,0.0
3,4, 1, 4, 0,Friday
10,126927816.35563257,1938472.626945253, 1,60,8893142.786285559, 9,60
2,5, 1, 5, 0, 1, 0.00,60.00,Saturday
8,1525784.301568602
734,0.0
2,5, 1, 5, 0, 2, 0.00,60.00,Saturday
8,1525784.301568602
734,0.0
2,5, 1, 5, 0, 3, 0.00,60.00,Saturday
8,1525784.301568602
734,0.0
2,5, 1, 5, 0, 4, 0.00,60.00,Saturday
8,1525784.301568602
734,0.0
2,5, 1, 5, 0, 5, 0.00,60.00,Saturday
8,1525784.301568602
734,0.0
2,5, 1, 5, 0, 6, 0.00,60.00,Saturday
8,1525784.301568602
734,0.0
2,5, 1, 5, 0, 7, 0.00,60.00,Saturday
8,2226191.952383903
734,0.0
2,5, 1, 5, 0, 8, 0.00,60.00,Saturday
8,2226191.952383903
734,0.0
2,5, 1, 5, 0, 9, 0.00,60.00,Saturday
8,4940634.881269755
734,0.0
2,5, 1, 5, 0,10, 0.00,60.00,Saturday
8,4940634.881269755
734,0.0
2,5, 1, 5, 0,11, 0.00,60.00,Saturday
8,4940634.881269755
734,0.0
2,5, 1, 5, 0,12, 0.00,60.00,Saturday
8,4940634.881269755
734,0.0
2,5, 1, 5, 0,13, 0.00,60.00,Saturday
8,4940634.881269755
734,0.0
2,5, 1, 5, 0,14, 0.00,60.00,Saturday
8,4940634.881269755
734,0.0
2,5, 1, 5, 0,15, 0.00,60.00,Saturday
8,2307567.1151342276
734,0.0
2,5, 1, 5, 0,16, 0.00,60.00,Saturday
8,2307567.1151342276
734,0.0
2,5, 1, 5, 0,17, 0.00,60.00,Saturday
8,2307567.1151342276
734,0.0
2,5, 1, 5, 0,18, 0.00,60.00,Saturday
8,1525784.301568602
734,0.0
2,5, 1, 5, 0,19, 0.00,60.00,Saturday
8,1525784.301568602
734,0.0
2,5, 1, 5, 0,20, 0.00,60.00,Saturday
8,1525784.301568602
734,0.0
2,5, 1, 5, 0,21, 0.00,60.00,Saturday
8,1525784.301568602
734,0.0
2,5, 1, 5, 0,22, 0.00,60.00,Saturday
8,1525784.301568602
734,0.0
2,5, 1, 5, 0,23, 0.00,60.00,Saturday
8,1525784.301568602
734,0.0
2,5, 1, 5, 0,24, 0.00,60.00,Saturday
8,1525784.301568602
734,0.0
3,5, 1, 5, 0,Saturday
10,60854090.458180845,1525784.301568602, 1,60,4940634.881269755, 9,60
2,6, 1, 6, 0, 1, 0.00,60.00,Sunday
8,1525784.301568602
734,0.0
2,6, 1, 6, 0, 2, 0.00,60.00,Sunday
8,1525784.301568602
734,0.0
2,6, 1, 6, 0, 3, 0.00,60.00,Sunday
8,1525784.301568602
734,0.0
2,6, 1, 6, 0, 4, 0.00,60.00,Sunday
8,1525784.301568602
734,0.0
2,6, 1, 6, 0, 5, 0.00,60.00,Sunday
8,1525784.301568602
734,0.0
2,6, 1, 6, 0, 6, 0.00,60.00,Sunday
8,1525784.301568602
734,0.0
2,6, 1, 6, 0, 7, 0.00,60.00,Sunday
8,1525784.301568602
734,0.0
2,6, 1, 6, 0, 8, 0.00,60.00,Sunday
8,1525784.301568602
734,0.0
2,6, 1, 6, 0, 9, 0.00,60.00,Sunday
8,1525784.301568602
734,0.0
2,6, 1, 6, 0,10, 0.00,60.00,Sunday
8,1525784.301568602
734,0.0
2,6, 1, 6, 0,11, 0.00,60.00,Sunday
8,1525784.301568602
734,0.0
2,6, 1, 6, 0,12, 0.00,60.00,Sunday
8,1525784.301568602
734,0.0
2,6, 1, 6, 0,13, 0.00,60.00,Sunday
8,1525784.301568602
734,0.0
2,6, 1, 6, 0,14, 0.00,60.00,Sunday
8,1525784.301568602
734,0.0
2,6, 1, 6, 0,15, 0.00,60.00,Sunday
8,1525784.301568602
734,0.0
2,6, 1, 6, 0,16, 0.00,60.00,Sunday
8,1525784.301568602
734,0.0
2,6, 1, 6, 0,17, 0.00,60.00,Sunday
8,1525784.301568602
734,0.0
2,6, 1, 6, 0,18, 0.00,60.00,Sunday
8,1525784.301568602
734,0.0
2,6, 1, 6, 0,19, 0.00,60.00,Sunday
8,1525784.301568602
734,0.0
2,6, 1, 6, 0,20, 0.00,60.00,Sunday
8,1525784.301568602
734,0.0
2,6, 1, 6, 0,21, 0.00,60.00,Sunday
8,1525784.301568602
734,0.0
2,6, 1, 6, 0,22, 0.00,60.00,Sunday
8,1525784.301568602
734,0.0
2,6, 1, 6, 0,23, 0.00,60.00,Sunday
8,1525784.301568602
734,0.0
2,6, 1, 6, 0,24, 0.00,60.00,Sunday
8,1525784.301568602
734,0.0
3,6, 1, 6, 0,Sunday
10,36618823.237646446,1525784.301568602, 1,60,1525784.301568602, 1,60
2,7, 1, 7, 0, 1, 0.00,60.00,Monday
8,1938472.626945253
734,0.0
2,7, 1, 7, 0, 2, 0.00,60.00,Monday
8,1938472.626945253
734,0.0
2,7, 1, 7, 0, 3, 0.00,60.00,Monday
8,1938472.626945253
734,0.0
2,7, 1, 7, 0, 4, 0.00,60.00,Monday
8,1938472.626945253
734,0.0
2,7, 1, 7, 0, 5, 0.00,60.00,Monday
8,1938472.626945253
734,0.0
2,7, 1, 7, 0, 6, 0.00,60.00,Monday
8,2226191.952383903
734,0.0
2,7, 1, 7, 0, 7, 0.00,60.00,Monday
8,2226191.952383903
734,0.0
2,7, 1, 7, 0, 8, 0.00,60.00,Monday
8,3377069.2541385037
734,0.0
2,7, 1, 7, 0, 9, 0.00,60.00,Monday
8,8893142.786285559
734,0.0
2,7, 1, 7, 0,10, 0.00,60.00,Monday
8,8893142.786285559
734,0.0
2,7, 1, 7, 0,11, 0.00,60.00,Monday
8,8893142.786285559
734,0.0
2,7, 1, 7, 0,12, 0.00,60.00,Monday
8,8893142.786285559
734,0.0
2,7, 1, 7, 0,13, 0.00,60.00,Monday
8,8480454.460908908
734,0.0
2,7, 1, 7, 0,14, 0.00,60.00,Monday
8,8893142.786285559
734,0.0
2,7, 1, 7, 0,15, 0.00,60.00,Monday
8,8893142.786285559
734,0.0
2,7, 1, 7, 0,16, 0.00,60.00,Monday
8,8893142.786285559
734,0.0
2,7, 1, 7, 0,17, 0.00,60.00,Monday
8,8893142.786285559
734,0.0
2,7, 1, 7, 0,18, 0.00,60.00,Monday
8,7329577.159154307
734,0.0
2,7, 1, 7, 0,19, 0.00,60.00,Monday
8,5353323.206646405
734,0.0
2,7, 1, 7, 0,20, 0.00,60.00,Monday
8,5353323.206646405
734,0.0
2,7, 1, 7, 0,21, 0.00,60.00,Monday
8,3789757.579515154
734,0.0
2,7, 1, 7, 0,22, 0.00,60.00,Monday
8,3789757.579515154
734,0.0
2,7, 1, 7, 0,23, 0.00,60.00,Monday
8,2226191.952383903
734,0.0
2,7, 1, 7, 0,24, 0.00,60.00,Monday
8,1938472.626945253
734,0.0
3,7, 1, 7, 0,Monday
10,126927816.35563257,1938472.626945253, 1,60,8893142.786285559, 9,60
2,8, 1, 8, 0, 1, 0.00,60.00,Tuesday
8,1938472.626945253
734,0.0
2,8, 1, 8, 0, 2, 0.00,60.00,Tuesday
8,1938472.626945253
734,0.0
2,8, 1, 8, 0, 3, 0.00,60.00,Tuesday
8,1938472.626945253
734,0.0
2,8, 1, 8, 0, 4, 0.00,60.00,Tuesday
8,1938472.626945253
734,0.0
2,8, 1, 8, 0, 5, 0.00,60.00,Tuesday
8,1938472.626945253
734,0.0
2,8, 1, 8, 0, 6, 0.00,60.00,Tuesday
8,2226191.952383903
734,0.0
2,8, 1, 8, 0, 7, 0.00,60.00,Tuesday
8,2226191.952383903
734,0.0
2,8, 1, 8, 0, 8, 0.00,60.00,Tuesday
8,3377069.2541385037
734,0.0
2,8, 1, 8, 0, 9, 0.00,60.00,Tuesday
8,8893142.786285559
734,0.0
2,8, 1, 8, 0,10, 0.00,60.00,Tuesday
8,8893142.786285559
734,0.0
2,8, 1, 8, 0,11, 0.00,60.00,Tuesday
8,8893142.786285559
734,0.0
2,8, 1, 8, 0,12, 0.00,60.00,Tuesday
8,8893142.786285559
734,0.0
2,8, 1, 8, 0,13, 0.00,60.00,Tuesday
8,8480454.460908908
734,0.0
2,8, 1, 8, 0,14, 0.00,60.00,Tuesday
8,8893142.786285559
734,0.0
2,8, 1, 8, 0,15, 0.00,60.00,Tuesday
8,8893142.786285559
734,0.0
2,8, 1, 8, 0,16, 0.00,60.00,Tuesday
8,8893142.786285559
734,0.0
2,8, 1, 8, 0,17, 0.00,60.00,Tuesday
8,8893142.786285559
734,0.0
2,8, 1, 8, 0,18, 0.00,60.00,Tuesday
8,7329577.159154307
734,0.0
2,8, 1, 8, 0,19, 0.00,60.00,Tuesday
8,5353323.206646405
734,0.0
2,8, 1, 8, 0,20, 0.00,60.00,Tuesday
8,5353323.206646405
734,0.0
2,8, 1, 8, 0,21, 0.00,60.00,Tuesday
8,3789757.579515154
734,0.0
2,8, 1, 8, 0,22, 0.00,60.00,Tuesday
8,3789757.579515154
734,0.0
2,8, 1, 8, 0,23, 0.00,60.00,Tuesday
8,2226191.952383903
734,0.0
2,8, 1, 8, 0,24, 0.00,60.00,Tuesday
8,1938472.626945253
734,0.0
3,8, 1, 8, 0,Tuesday
10,126927816.35563257,1938472.626945253, 1,60,8893142.786285559, 9,60
2,9, 1, 9, 0, 1, 0.00,60.00,Wednesday
8,1938472.626945253
734,0.0
2,9, 1, 9, 0, 2, 0.00,60.00,Wednesday
8,1938472.626945253
734,0.0
2,9, 1, 9, 0, 3, 0.00,60.00,Wednesday
8,1938472.626945253
734,0.0
2,9, 1, 9, 0, 4, 0.00,60.00,Wednesday
8,1938472.626945253
734,0.0
2,9, 1, 9, 0, 5, 0.00,60.00,Wednesday
8,1938472.626945253
734,0.0
2,9, 1, 9, 0, 6, 0.00,60.00,Wednesday
8,2226191.952383903
734,0.0
2,9, 1, 9, 0, 7, 0.00,60.00,Wednesday
8,2226191.952383903
734,0.0
2,9, 1, 9, 0, 8, 0.00,60.00,Wednesday
8,3377069.2541385037
734,0.0
2,9, 1, 9, 0, 9, 0.00,60.00,Wednesday
8,8893142.786285559
734,0.0
2,9, 1, 9, 0,10, 0.00,60.00,Wednesday
8,8893142.786285559
734,0.0
2,9, 1, 9, 0,11, 0.00,60.00,Wednesday
8,8893142.786285559
734,0.0
2,9, 1, 9, 0,12, 0.00,60.00,Wednesday
8,8893142.786285559
734,0.0
2,9, 1, 9, 0,13, 0.00,60.00,Wednesday
8,8480454.460908908
734,0.0
2,9, 1, 9, 0,14, 0.00,60.00,Wednesday
8,8893142.786285559
734,0.0
2,9, 1, 9, 0,15, 0.00,60.00,Wednesday
8,8893142.786285559
734,0.0
2,9, 1, 9, 0,16, 0.00,60.00,Wednesday
8,8893142.786285559
734,0.0
2,9, 1, 9, 0,17, 0.00,60.00,Wednesday
8,8893142.786285559
734,0.0
2,9, 1, 9, 0,18, 0.00,60.00,Wednesday
8,7329577.159154307
734,0.0
2,9, 1, 9, 0,19, 0.00,60.00,Wednesday
8,5353323.206646405
734,0.0
2,9, 1, 9, 0,20, 0.00,60.00,Wednesday
8,5353323.206646405
734,0.0
2,9, 1, 9, 0,21, 0.00,60.00,Wednesday
8,3789757.579515154
734,0.0
2,9, 1, 9, 0,22, 0.00,60.00,Wednesday
8,3789757.579515154
734,0.0
2,9, 1, 9, 0,23, 0.00,60.00,Wednesday
8,2226191.952383903
734,0.0
2,9, 1, 9, 0,24, 0.00,60.00,Wednesday
8,1938472.626945253
734,0.0
3,9, 1, 9, 0,Wednesday
10,126927816.35563257,1938472.626945253, 1,60,8893142.786285559, 9,60
2,10, 1,10, 0, 1, 0.00,60.00,Thursday
8,1938472.626945253
734,0.0
2,10, 1,10, 0, 2, 0.00,60.00,Thursday
8,1938472.626945253
734,0.0
2,10, 1,10, 0, 3, 0.00,60.00,Thursday
8,1938472.626945253
734,0.0
2,10, 1,10, 0, 4, 0.00,60.00,Thursday
8,1938472.626945253
734,0.0
2,10, 1,10, 0, 5, 0.00,60.00,Thursday
8,1938472.626945253
734,0.0
2,10, 1,10, 0, 6, 0.00,60.00,Thursday
8,2226191.952383903
734,0.0
2,10, 1,10, 0, 7, 0.00,60.00,Thursday
8,2226191.952383903
734,0.0
2,10, 1,10, 0, 8, 0.00,60.00,Thursday
8,3377069.2541385037
734,0.0
2,10, 1,10, 0, 9, 0.00,60.00,Thursday
8,8893142.786285559
734,0.0
2,10, 1,10, 0,10, 0.00,60.00,Thursday
8,8893142.786285559
734,0.0
2,10, 1,10, 0,11, 0.00,60.00,Thursday
8,8893142.786285559
734,0.0
2,10, 1,10, 0,12, 0.00,60.00,Thursday
8,8893142.786285559
734,0.0
2,10, 1,10, 0,13, 0.00,60.00,Thursday
8,8480454.460908908
734,0.0
2,10, 1,10, 0,14, 0.00,60.00,Thursday
8,8893142.786285559
734,0.0
2,10, 1,10, 0,15, 0.00,60.00,Thursday
8,8893142.786285559
734,0.0
2,10, 1,10, 0,16, 0.00,60.00,Thursday
8,8893142.786285559
734,0.0
2,10, 1,10, 0,17, 0.00,60.00,Thursday
8,8893142.786285559
734,0.0
2,10, 1,10, 0,18, 0.00,60.00,Thursday
8,7329577.159154307
734,0.0
2,10, 1,10, 0,19, 0.00,60.00,Thursday
8,5353323.206646405
734,0.0
2,10, 1,10, 0,20, 0.00,60.00,Thursday
8,5353323.206646405
734,0.0
2,10, 1,10, 0,21, 0.00,60.00,Thursday
8,3789757.579515154
734,0.0
2,10, 1,10, 0,22, 0.00,60.00,Thursday
8,3789757.579515154
734,0.0
2,10, 1,10, 0,23, 0.00,60.00,Thursday
8,2226191.952383903
734,0.0
2,10, 1,10, 0,24, 0.00,60.00,Thursday
8,1938472.626945253
734,0.0
3,10, 1,10, 0,Thursday
10,126927816.35563257,1938472.626945253, 1,60,8893142.786285559, 9,60
2,11, 1,11, 0, 1, 0.00,60.00,Friday
8,1938472.626945253
734,0.0
2,11, 1,11, 0, 2, 0.00,60.00,Friday
8,1938472.626945253
734,0.0
2,11, 1,11, 0, 3, 0.00,60.00,Friday
8,1938472.626945253
734,0.0
2,11, 1,11, 0, 4, 0.00,60.00,Friday
8,1938472.626945253
734,0.0
2,11, 1,11, 0, 5, 0.00,60.00,Friday
8,1938472.626945253
734,0.0
2,11, 1,11, 0, 6, 0.00,60.00,Friday
8,2226191.952383903
734,0.0
2,11, 1,11, 0, 7, 0.00,60.00,Friday
8,2226191.952383903
734,0.0
2,11, 1,11, 0, 8, 0.00,60.00,Friday
8,3377069.2541385037
734,0.0
2,11, 1,11, 0, 9, 0.00,60.00,Friday
8,8893142.786285559
734,0.0
2,11, 1,11, 0,10, 0.00,60.00,Friday
8,8893142.786285559
734,0.0
2,11, 1,11, 0,11, 0.00,60.00,Friday
8,8893142.786285559
734,0.0
2,11, 1,11, 0,12, 0.00,60.00,Friday
8,8893142.786285559
734,0.0
2,11, 1,11, 0,13, 0.00,60.00,Friday
8,8480454.460908908
734,0.0
2,11, 1,11, 0,14, 0.00,60.00,Friday
8,8893142.786285559
734,0.0
2,11, 1,11, 0,15, 0.00,60.00,Friday
8,8893142.786285559
734,0.0
2,11, 1,11, 0,16, 0.00,60.00,Friday
8,8893142.786285559
734,0.0
2,11, 1,11, 0,17, 0.00,60.00,Friday
8,8893142.786285559
734,0.0
2,11, 1,11, 0,18, 0.00,60.00,Friday
8,7329577.159154307
734,0.0
2,11, 1,11, 0,19, 0.00,60.00,Friday
8,5353323.206646405
734,0.0
2,11, 1,11, 0,20, 0.00,60.00,Friday
8,5353323.206646405
734,0.0
2,11, 1,11, 0,21, 0.00,60.00,Friday
8,3789757.579515154
734,0.0
2,11, 1,11, 0,22, 0.00,60.00,Friday
8,3789757.579515154
734,0.0
2,11, 1,11, 0,23, 0.00,60.00,Friday
8,2226191.952383903
734,0.0
2,11, 1,11, 0,24, 0.00,60.00,Friday
8,1938472.626945253
734,0.0
3,11, 1,11, 0,Friday
10,126927816.35563257,1938472.626945253, 1,60,8893142.786285559, 9,60
2,12, 1,12, 0, 1, 0.00,60.00,Saturday
8,1525784.301568602
734,0.0
2,12, 1,12, 0, 2, 0.00,60.00,Saturday
8,1525784.301568602
734,0.0
2,12, 1,12, 0, 3, 0.00,60.00,Saturday
8,1525784.301568602
734,0.0
2,12, 1,12, 0, 4, 0.00,60.00,Saturday
8,1525784.301568602
734,0.0
2,12, 1,12, 0, 5, 0.00,60.00,Saturday
8,1525784.301568602
734,0.0
2,12, 1,12, 0, 6, 0.00,60.00,Saturday
8,1525784.301568602
734,0.0
2,12, 1,12, 0, 7, 0.00,60.00,Saturday
8,2226191.952383903
734,0.0
2,12, 1,12, 0, 8, 0.00,60.00,Saturday
8,2226191.952383903
734,0.0
2,12, 1,12, 0, 9, 0.00,60.00,Saturday
8,4940634.881269755
734,0.0
2,12, 1,12, 0,10, 0.00,60.00,Saturday
8,4940634.881269755
734,0.0
2,12, 1,12, 0,11, 0.00,60.00,Saturday
8,4940634.881269755
734,0.0
2,12, 1,12, 0,12, 0.00,60.00,Saturday
8,4940634.881269755
734,0.0
2,12, 1,12, 0,13, 0.00,60.00,Saturday
8,4940634.881269755
734,0.0
2,12, 1,12, 0,14, 0.00,60.00,Saturday
8,4940634.881269755
734,0.0
2,12, 1,12, 0,15, 0.00,60.00,Saturday
8,2307567.1151342276
734,0.0
2,12, 1,12, 0,16, 0.00,60.00,Saturday
8,2307567.1151342276
734,0.0
2,12, 1,12, 0,17, 0.00,60.00,Saturday
8,2307567.1151342276
734,0.0
2,12, 1,12, 0,18, 0.00,60.00,Saturday
8,1525784.301568602
734,0.0
2,12, 1,12, 0,19, 0.00,60.00,Saturday
8,1525784.301568602
734,0.0
2,12, 1,12, 0,20, 0.00,60.00,Saturday
8,1525784.301568602
734,0.0
2,12, 1,12, 0,21, 0.00,60.00,Saturday
8,1525784.301568602
734,0.0
2,12, 1,12, 0,22, 0.00,60.00,Saturday
8,1525784.301568602
734,0.0
2,12, 1,12, 0,23, 0.00,60.00,Saturday
8,1525784.301568602
734,0.0
2,12, 1,12, 0,24, 0.00,60.00,Saturday
8,1525784.301568602
734,0.0
3,12, 1,12, 0,Saturday
10,60854090.458180845,1525784.301568602, 1,60,4940634.881269755, 9,60
2,13, 1,13, 0, 1, 0.00,60.00,Sunday
8,1525784.301568602
734,0.0
2,13, 1,13, 0, 2, 0.00,60.00,Sunday
8,1525784.301568602
734,0.0
2,13, 1,13, 0, 3, 0.00,60.00,Sunday
8,1525784.301568602
734,0.0
2,13, 1,13, 0, 4, 0.00,60.00,Sunday
8,1525784.301568602
734,0.0
2,13, 1,13, 0, 5, 0.00,60.00,Sunday
8,1525784.301568602
734,0.0
2,13, 1,13, 0, 6, 0.00,60.00,Sunday
8,1525784.301568602
734,0.0
2,13, 1,13, 0, 7, 0.00,60.00,Sunday
8,1525784.301568602
734,0.0
2,13, 1,13, 0, 8, 0.00,60.00,Sunday
8,1525784.301568602
734,0.0
2,13, 1,13, 0, 9, 0.00,60.00,Sunday
8,1525784.301568602
734,0.0
2,13, 1,13, 0,10, 0.00,60.00,Sunday
8,1525784.301568602
734,0.0
2,13, 1,13, 0,11, 0.00,60.00,Sunday
8,1525784.301568602
734,0.0
2,13, 1,13, 0,12, 0.00,60.00,Sunday
8,1525784.301568602
734,0.0
2,13, 1,13, 0,13, 0.00,60.00,Sunday
8,1525784.301568602
734,0.0
2,13, 1,13, 0,14, 0.00,60.00,Sunday
8,1525784.301568602
734,0.0
2,13, 1,13, 0,15, 0.00,60.00,Sunday
8,1525784.301568602
734,0.0
2,13, 1,13, 0,16, 0.00,60.00,Sunday
8,1525784.301568602
734,0.0
2,13, 1,13, 0,17, 0.00,60.00,Sunday
8,1525784.301568602
734,0.0
2,13, 1,13, 0,18, 0.00,60.00,Sunday
8,1525784.301568602
734,0.0
2,13, 1,13, 0,19, 0.00,60.00,Sunday
8,1525784.301568602
734,0.0
2,13, 1,13, 0,20, 0.00,60.00,Sunday
8,1525784.301568602
734,0.0
2,13, 1,13, 0,21, 0.00,60.00,Sunday
8,1525784.301568602
734,0.0
2,13, 1,13, 0,22, 0.00,60.00,Sunday
8,1525784.301568602
734,0.0
2,13, 1,13, 0,23, 0.00,60.00,Sunday
8,1525784.301568602
734,0.0
2,13, 1,13, 0,24, 0.00,60.00,Sunday
8,1525784.301568602
734,0.0
3,13, 1,13, 0,Sunday
10,36618823.237646446,1525784.301568602, 1,60,1525784.301568602, 1,60
2,14, 1,14, 0, 1, 0.00,60.00,Monday
8,1938472.626945253
734,0.0
2,14, 1,14, 0, 2, 0.00,60.00,Monday
8,1938472.626945253
734,0.0
2,14, 1,14, 0, 3, 0.00,60.00,Monday
8,1938472.626945253
734,0.0
2,14, 1,14, 0, 4, 0.00,60.00,Monday
8,1938472.626945253
734,0.0
2,14, 1,14, 0, 5, 0.00,60.00,Monday
8,1938472.626945253
734,0.0
2,14, 1,14, 0, 6, 0.00,60.00,Monday
8,2226191.952383903
734,0.0
2,14, 1,14, 0, 7, 0.00,60.00,Monday
8,2226191.952383903
734,0.0
2,14, 1,14, 0, 8, 0.00,60.00,Monday
8,3377069.2541385037
734,0.0
2,14, 1,14, 0, 9, 0.00,60.00,Monday
8,8893142.786285559
734,0.0
2,14, 1,14, 0,10, 0.00,60.00,Monday
8,8893142.786285559
734,0.0
2,14, 1,14, 0,11, 0.00,60.00,Monday
8,8893142.786285559
734,0.0
2,14, 1,14, 0,12, 0.00,60.00,Monday
8,8893142.786285559
734,0.0
2,14, 1,14, 0,13, 0.00,60.00,Monday
8,8480454.460908908
734,0.0
2,14, 1,14, 0,14, 0.00,60.00,Monday
8,8893142.786285559
734,0.0
2,14, 1,14, 0,15, 0.00,60.00,Monday
8,8893142.786285559
734,0.0
2,14, 1,14, 0,16, 0.00,60.00,Monday
8,8893142.786285559
734,0.0
2,14, 1,14, 0,17, 0.00,60.00,Monday
8,8893142.786285559
734,0.0
2,14, 1,14, 0,18, 0.00,60.00,Monday
8,7329577.159154307
734,0.0
2,14, 1,14, 0,19, 0.00,60.00,Monday
8,5353323.206646405
734,0.0
2,14, 1,14, 0,20, 0.00,60.00,Monday
8,5353323.206646405
734,0.0
2,14, 1,14, 0,21, 0.00,60.00,Monday
8,3789757.579515154
734,0.0
2,14, 1,14, 0,22, 0.00,60.00,Monday
8,3789757.579515154
734,0.0
2,14, 1,14, 0,23, 0.00,60.00,Monday
8,2226191.952383903
734,0.0
2,14, 1,14, 0,24, 0.00,60.00,Monday
8,1938472.626945253
734,0.0
3,14, 1,14, 0,Monday
10,126927816.35563257,1938472.626945253, 1,60,8893142.786285559, 9,60
2,15, 1,15, 0, 1, 0.00,60.00,Tuesday
8,1938472.626945253
734,0.0
2,15, 1,15, 0, 2, 0.00,60.00,Tuesday
8,1938472.626945253
734,0.0
2,15, 1,15, 0, 3, 0.00,60.00,Tuesday
8,1938472.626945253
734,0.0
2,15, 1,15, 0, 4, 0.00,60.00,Tuesday
8,1938472.626945253
734,0.0
2,15, 1,15, 0, 5, 0.00,60.00,Tuesday
8,1938472.626945253
734,0.0
2,15, 1,15, 0, 6, 0.00,60.00,Tuesday
8,2226191.952383903
734,0.0
2,15, 1,15, 0, 7, 0.00,60.00,Tuesday
8,2226191.952383903
734,0.0
2,15, 1,15, 0, 8, 0.00,60.00,Tuesday
8,3377069.2541385037
734,0.0
2,15, 1,15, 0, 9, 0.00,60.00,Tuesday
8,8893142.786285559
734,0.0
2,15, 1,15, 0,10, 0.00,60.00,Tuesday
8,8893142.786285559
734,0.0
2,15, 1,15, 0,11, 0.00,60.00,Tuesday
8,8893142.786285559
734,0.0
2,15, 1,15, 0,12, 0.00,60.00,Tuesday
8,8893142.786285559
734,0.0
2,15, 1,15, 0,13, 0.00,60.00,Tuesday
8,8480454.460908908
734,0.0